LAMMPS data file via write_data, version 3 Mar 2020, timestep = 10000

21252 atoms
3 atom types

-5.9371648206147043e-02 1.2974306317030493e+01 xlo xhi
3.3436688547401161e-01 1.9974680015211760e+02 ylo yhi
-4.4280660621701884e-01 9.6765185435285559e+01 zlo zhi

Masses

1 52
2 58.7
3 59

Atoms # atomic

10733 1 2.3014780528244119e+00 2.2116705846324471e+00 1.4420547997554209e+00 0 0 0
10734 3 8.6520502694144075e-02 3.4795468770142777e+00 1.4849902754183322e+00 0 0 0
10735 1 6.7106974301291727e-02 8.7352885090245447e-01 1.4629586494638798e+00 0 0 0
10739 3 1.4955998575263232e+00 3.3485624411820711e+00 9.6651220973042882e+01 0 0 -1
10744 3 3.7470161015059285e+00 2.2266093649692906e+00 9.6699563648956683e+01 0 0 -1
10354 1 4.3928995292380524e+00 9.4415661262375683e-01 1.4954321681266507e+00 0 0 0
10347 3 4.4579004227604404e+00 3.3885097980735823e+00 1.4954904290681290e+00 0 0 0
10355 2 6.5631064725824357e+00 2.2202408812467009e+00 1.4773055174186689e+00 0 0 0
10357 2 5.9052951637571685e+00 3.4616941972555688e+00 9.6606963603743850e+01 0 0 -1
10358 3 5.9076322327933148e+00 1.0509107777051168e+00 9.6667916402996440e+01 0 0 -1
10822 2 1.2376975026900471e+01 2.1022072923173107e+00 9.6681681023933052e+01 -1 0 -1
10356 3 8.0064690806464096e+00 2.2365524360103848e+00 9.6642878947053561e+01 0 0 -1
9487 3 1.0893655473272618e+01 2.3074558440236759e+00 1.4447058627104825e+00 0 0 0
9488 2 8.7013165032582105e+00 3.4911958301941852e+00 1.5028424371651561e+00 0 0 0
9489 2 8.8244428258945788e+00 1.0191898534397246e+00 1.5987629049746044e+00 0 0 0
9492 2 1.0123927810124721e+01 3.4242051278655992e+00 9.6684512724856347e+01 0 0 -1
9494 3 1.0164519452565681e+01 9.8329134285845998e-01 9.6749154676184745e+01 0 0 -1
10736 1 2.2891324638301684e+00 4.7487546186528009e+00 1.4476862670463462e+00 0 0 0
10724 3 2.4355528903398751e+00 7.0864714323255731e+00 1.2376868065055324e+00 0 0 0
10726 1 4.0865801734525753e-02 5.9982878622088132e+00 1.3614551798278787e+00 0 0 0
10738 3 1.4415259581505191e+00 5.8599104535871218e+00 9.6593428426290984e+01 0 0 -1
10823 1 1.2309769767572419e+01 4.6124503510640862e+00 9.6526124986480951e+01 -1 0 -1
10737 3 3.6238099031875004e+00 4.6865840869786339e+00 9.6630554854258762e+01 0 0 -1
10725 1 3.0748836569783056e-01 8.5196270806489025e+00 1.3045658026073266e+00 0 0 0
10350 1 3.8160076856732035e+00 7.1603758656200940e+00 9.6483980448225111e+01 0 0 -1
10345 1 6.5854927655185005e+00 4.7341435000188721e+00 1.5603141403008216e+00 0 0 0
10346 2 4.5916044982080013e+00 5.9003875532265733e+00 1.2975298720859241e+00 0 0 0
10348 2 6.7131387843413988e+00 7.1815617262744134e+00 1.3819221929024001e+00 0 0 0
10349 1 8.0132042108569106e+00 7.2616465847613814e+00 9.6519217789250149e+01 0 0 -1
10359 1 8.0423924458819425e+00 4.7724173008737480e+00 9.6713314124733785e+01 0 0 -1
10332 1 4.5109165543282570e+00 8.4656736669385158e+00 1.3780799543703279e+00 0 0 0
10820 2 1.2244879365190108e+01 7.2011931182969020e+00 9.6505748687455892e+01 -1 0 -1
9490 3 1.0963854922188000e+01 4.7124700704111957e+00 1.4997094285303210e+00 0 0 0
9477 3 1.0957450897443190e+01 7.2051336989332304e+00 1.3177077341058121e+00 0 0 0
9479 3 8.7873393687520842e+00 6.0934997339590016e+00 1.4367361894975670e+00 0 0 0
9491 1 1.0109692917719126e+01 5.9021717241491514e+00 9.6719796236552639e+01 0 0 -1
9482 3 1.0251158720454736e+01 8.6061712901568654e+00 9.6322620592592472e+01 0 0 -1
10715 1 3.6329715701941168e-01 1.0909949903903209e+01 1.4079890265440558e+00 0 0 0
10727 3 2.4928574590380839e+00 9.6571442828127019e+00 1.3033329119325545e+00 0 0 0
10740 1 1.5817427550711081e+00 8.3883764215668872e+00 9.6502583549096670e+01 0 0 -1
10728 1 1.7625610381238797e+00 1.0974740260641054e+01 9.6390441537234395e+01 0 0 -1
10713 3 2.3879318042964819e+00 1.2193049225433793e+01 1.2606424365446101e+00 0 0 0
10729 2 3.8595095220221713e+00 1.2126053493808415e+01 9.6557297611275473e+01 0 0 -1
10330 3 6.7006194977970051e+00 9.6609475296722689e+00 1.2112677153157998e+00 0 0 0
10331 1 4.5486623822773726e+00 1.0944855096725959e+01 1.3005652296192896e+00 0 0 0
10335 3 3.8529431525943556e+00 9.6098254841000443e+00 9.6471826435411074e+01 0 0 -1
10351 1 8.0972279806054193e+00 9.9247399125068103e+00 9.6397371647015134e+01 0 0 -1
10333 2 6.8171947132787141e+00 1.2094424873457855e+01 1.1871989352238299e+00 0 0 0
10821 1 1.2518918174253397e+01 9.6569476909022498e+00 9.6406152961041400e+01 -1 0 -1
9478 3 8.8903491626215025e+00 8.5482700863507741e+00 1.2216651419651061e+00 0 0 0
9461 2 8.9410205608620110e+00 1.1020926969171795e+01 1.2566851092809446e+00 0 0 0
9480 3 1.1014967115544222e+01 9.7890544452047532e+00 1.2279830421547953e+00 0 0 0
9459 1 1.1254530722698933e+01 1.2215614801131984e+01 1.3174059538124623e+00 0 0 0
9481 3 1.0380891683724624e+01 1.1037422691277232e+01 9.6512440843779856e+01 0 0 -1
10334 2 8.3156167667006482e+00 1.2429057601209163e+01 9.6459869500077744e+01 0 0 -1
10818 3 1.2688644664251802e+01 1.2091901132180249e+01 9.6499095715471668e+01 -1 0 -1
10714 2 2.8069033628428597e-01 1.3385826193624933e+01 1.3136131859341356e+00 0 0 0
10716 2 2.4960967783930683e+00 1.4746822362463940e+01 1.2493925637072201e+00 0 0 0
10717 2 3.9872917006928876e+00 1.4651164274763140e+01 9.6444196920392343e+01 0 0 -1
10705 1 3.8104438616612785e-01 1.5991083542284557e+01 1.2330160157690819e+00 0 0 0
10718 2 1.6886323991823851e+00 1.3604476774702034e+01 9.6478806152402100e+01 0 0 -1
10819 2 1.2684368479095079e+01 1.4803240593381279e+01 9.6400031094308247e+01 -1 0 -1
10309 3 6.7362985502265484e+00 1.4582431812840984e+01 1.1831954657929797e+00 0 0 0
10311 3 4.5672767105341574e+00 1.3405952312158171e+01 1.3089696633495049e+00 0 0 0
10310 2 4.6751173547123024e+00 1.6057698962997840e+01 1.2802332415603621e+00 0 0 0
10314 3 6.1855278785511389e+00 1.5905080738679072e+01 9.6467863666920437e+01 0 0 -1
10336 1 8.5107093692033740e+00 1.4994127632370818e+01 9.6506847803264350e+01 0 0 -1
9460 3 9.0707808933487950e+00 1.3437377350163134e+01 1.3339240649879172e+00 0 0 0
9462 1 1.1200146565596654e+01 1.4778452673083805e+01 1.3390260591579577e+00 0 0 0
9436 1 9.0174300813260775e+00 1.5942664295054254e+01 1.4014893654313345e+00 0 0 0
9464 3 1.0553744228924153e+01 1.3451926038103490e+01 9.6461250410239359e+01 0 0 -1
9463 2 1.0536371105815425e+01 1.5970007823598722e+01 9.6601074125267857e+01 0 0 -1
10703 2 2.5490788602191752e+00 1.7265435060235856e+01 1.3259290549070639e+00 0 0 0
10704 1 4.0676822317490324e-01 1.8409104471612611e+01 1.2321616708825569e+00 0 0 0
10706 2 2.5966292473159949e+00 1.9692174906125786e+01 1.2669529023511528e+00 0 0 0
10708 3 1.8635023953638465e+00 1.8348317738797860e+01 9.6456467052875595e+01 0 0 -1
10817 2 1.2807080768150614e+01 1.9734086748866183e+01 9.6516548099931796e+01 -1 0 -1
10816 2 1.2678337925098827e+01 1.7217189875220708e+01 9.6321683389665097e+01 -1 0 -1
10719 3 3.9886470134905343e+00 1.7215668579175397e+01 9.6509680944834727e+01 0 0 -1
10707 2 4.0826103915939687e+00 1.9686419895129987e+01 9.6470241611325633e+01 0 0 -1
10288 2 7.0969005184322036e+00 1.9824196860661019e+01 1.0691128190545307e+00 0 0 0
10290 2 4.7794353793724493e+00 1.8497939891861026e+01 1.2491861870089649e+00 0 0 0
10312 3 6.7970057820159555e+00 1.7233173095919621e+01 1.2989068981190821e+00 0 0 0
9434 3 1.1336113423544534e+01 1.7315546529516777e+01 1.2975053829128276e+00 0 0 0
9435 1 9.0430717826590516e+00 1.8490454122283630e+01 1.3988833768033628e+00 0 0 0
9437 1 1.1397064132695981e+01 1.9813323309348149e+01 1.2075919639749630e+00 0 0 0
9438 2 1.0531594451242148e+01 1.8487463131171950e+01 9.6508947903053382e+01 0 0 -1
10313 1 8.3694023834797164e+00 1.7417597645429364e+01 9.6386932444208782e+01 0 0 -1
10694 1 2.6749742702255577e+00 2.2174496061249648e+01 1.2224395082242498e+00 0 0 0
10695 1 4.3327426405146363e-01 2.3546982908519997e+01 1.3945765426463359e+00 0 0 0
10696 2 4.5794957111882428e-01 2.1069817634569247e+01 1.2742109243753290e+00 0 0 0
10814 2 1.2938309009857875e+01 2.2302190241787265e+01 9.6483015277409223e+01 -1 0 -1
10261 2 3.2388080869649873e+00 2.3599565283428692e+01 3.3260615086589307e+00 0 0 0
10693 2 1.1349128234694501e+00 2.2286289242702043e+01 3.3913657719843218e+00 0 0 0
10266 3 4.8786634009283949e+00 2.3596734256287391e+01 1.4207029688777546e+00 0 0 0
10289 3 4.7750188268423841e+00 2.1068451527547488e+01 1.4400504867708990e+00 0 0 0
10291 3 6.9625296371341046e+00 2.2317169285515508e+01 1.3951534530563237e+00 0 0 0
9401 3 1.1402846087257442e+01 2.2388496954827801e+01 1.2228981708444961e+00 0 0 0
9402 3 9.1945153787777318e+00 2.3662289420522001e+01 1.1824264770481521e+00 0 0 0
9403 2 9.2365880838479697e+00 2.0987748589279992e+01 1.1366094411019698e+00 0 0 0
9406 1 1.0705054550226182e+01 2.3716410620923217e+01 9.6507378025826469e+01 0 0 -1
10697 2 2.7431609154522669e+00 2.4901380681158763e+01 1.2364091891055136e+00 0 0 0
10684 3 2.6338243211390635e+00 2.7268889030829740e+01 1.3828735286495353e+00 0 0 0
10686 2 4.7194068001097333e-01 2.6112409493759841e+01 1.3728575015247746e+00 0 0 0
10682 3 1.1601272234145112e+00 2.4905738555541909e+01 3.3382605270807688e+00 0 0 0
10683 1 1.2105182835868677e+00 2.7363384015879333e+01 3.4832463611937672e+00 0 0 0
10264 2 7.0615323003695885e+00 2.4928274907935961e+01 1.2610654092553362e+00 0 0 0
10265 2 4.8909721622394651e+00 2.6039745949982240e+01 1.3145612339275379e+00 0 0 0
10267 2 6.9671138165431072e+00 2.7324636172453019e+01 1.4798872780595718e+00 0 0 0
10270 3 6.3675365252192133e+00 2.6200389448639932e+01 9.6536958162898770e+01 0 0 -1
10292 2 8.4808891869026990e+00 2.4972724957796910e+01 9.6518132802868237e+01 0 0 -1
9404 3 1.1306533824971147e+01 2.4835901851285243e+01 1.3406002202467400e+00 0 0 0
9367 1 1.1281224282175993e+01 2.7468830276755153e+01 1.4309034721801526e+00 0 0 0
9369 1 9.0633943975818596e+00 2.6068128710411088e+01 1.4306699741233393e+00 0 0 0
9405 2 1.0570069523440155e+01 2.6233799644580838e+01 9.6586520217498034e+01 0 0 -1
9366 3 9.8049249483527010e+00 2.7434762930110775e+01 3.4067020232907055e+00 0 0 0
10685 1 5.2208574659706697e-01 2.8695886921563368e+01 1.5426486608636791e+00 0 0 0
10677 1 5.0629779217578330e-01 3.1319328177643854e+01 1.4880288465048441e+00 0 0 0
10687 1 2.5894232023745891e+00 2.9955704848000142e+01 1.4965817091956128e+00 0 0 0
10238 3 3.2552865081399966e+00 2.8608273381128051e+01 3.3958412189606433e+00 0 0 0
10215 1 3.3699074490502805e+00 3.1224364152511431e+01 3.3892041344984380e+00 0 0 0
10673 1 1.1371141494048373e+00 2.9809452708052294e+01 3.5201519536623045e+00 0 0 0
10243 3 4.7871337006098864e+00 2.8575924676366636e+01 1.3221765505106771e+00 0 0 0
10241 3 7.0464697157431395e+00 3.0002681076550502e+01 1.4703822141795420e+00 0 0 0
10242 1 4.8875116837863519e+00 3.1084091440482840e+01 1.4523065604742280e+00 0 0 0
9331 3 7.6847367127394532e+00 2.8571986269941714e+01 3.4003719216142181e+00 0 0 0
9330 1 7.6507898025576706e+00 3.1137600337836943e+01 3.4849023370784997e+00 0 0 0
10240 2 5.3850575263054239e+00 2.9813248024262499e+01 3.4700580390396398e+00 0 0 0
9368 3 9.2386121310081499e+00 2.8678202357279716e+01 1.4574847087825404e+00 0 0 0
9335 2 9.0793629161067777e+00 3.1290168480849211e+01 1.4752418336817783e+00 0 0 0
9370 2 1.1282936572887303e+01 2.9991334632103143e+01 1.4322867349791224e+00 0 0 0
8060 1 1.2031252625650922e+01 2.8613944693543658e+01 3.3445091815403347e+00 0 0 0
9329 3 9.8241687847619534e+00 2.9936247468879859e+01 3.4576195463758563e+00 0 0 0
8025 3 1.2010189034366151e+01 3.1144749632098900e+01 3.5754314983253899e+00 0 0 0
10675 2 2.6791945213469757e+00 3.2442409189671309e+01 1.2702637276902538e+00 0 0 0
10676 3 3.8323810604674485e-01 3.3845010453324917e+01 1.4305659389260692e+00 0 0 0
10678 1 2.5200751548829592e+00 3.4915975367929541e+01 1.3809820250986544e+00 0 0 0
10674 3 1.1790292420142063e+00 3.2446161094327287e+01 3.5039991189112936e+00 0 0 0
10214 1 3.2274846772347852e+00 3.3709051647591245e+01 3.5094712512004853e+00 0 0 0
10663 1 1.0858279763581138e+00 3.4894538153659489e+01 3.5295881132652278e+00 0 0 0
10244 3 6.9171265519500631e+00 3.2467826295795859e+01 1.4141388131999215e+00 0 0 0
10217 1 6.8673296629987144e+00 3.5004328210044847e+01 1.3689068085524008e+00 0 0 0
10219 2 4.8277721469001857e+00 3.3602891557614335e+01 1.4871227760994730e+00 0 0 0
10216 1 5.4485188885557623e+00 3.4823522668278656e+01 3.4652640468415918e+00 0 0 0
10213 2 5.5861370035056339e+00 3.2341483846787710e+01 3.4866144924207920e+00 0 0 0
9297 3 7.6021601077206364e+00 3.3686308933938840e+01 3.4680510660987007e+00 0 0 0
9333 2 1.1327409389270064e+01 3.2341013413800297e+01 1.4333537706994421e+00 0 0 0
9334 1 9.0408841849281334e+00 3.3784122434134609e+01 1.5625113981295882e+00 0 0 0
9336 1 1.1294030165188159e+01 3.4999126109573389e+01 1.4399297327134468e+00 0 0 0
8024 3 1.2018924561914799e+01 3.3584926327330002e+01 3.5215712804256611e+00 0 0 0
9332 3 9.8562437251974178e+00 3.2449185383710208e+01 3.4492628014234068e+00 0 0 0
9295 1 9.7698597169832144e+00 3.4908223722338882e+01 3.4431524894360561e+00 0 0 0
10667 3 3.8652169443187795e-01 3.6247063403517814e+01 1.4971612783072743e+00 0 0 0
10665 2 2.4604793051988945e+00 3.7267802918134848e+01 1.4280603702624390e+00 0 0 0
10666 1 3.9377140347833778e-01 3.8645641656729090e+01 1.5900674020414240e+00 0 0 0
10668 3 2.7006429697273968e+00 3.9771772066505989e+01 1.5491616923400013e+00 0 0 0
10193 1 3.2760895218259352e+00 3.6033471342864402e+01 3.4829263525308165e+00 0 0 0
10192 2 3.3155055056630687e+00 3.8560007499356850e+01 3.5705839399737549e+00 0 0 0
10664 3 1.1495480512253853e+00 3.7434213364720328e+01 3.6006963414805737e+00 0 0 0
10218 1 4.5617009328805214e+00 3.6168111067655808e+01 1.5073995314030366e+00 0 0 0
10197 2 4.6588956471654948e+00 3.8500945617136203e+01 1.5890715560460187e+00 0 0 0
10220 2 6.8795794140695872e+00 3.7413693057228386e+01 1.5640738715167641e+00 0 0 0
10195 2 6.9165233471340111e+00 3.9952237998095562e+01 1.4740669967471407e+00 0 0 0
9296 2 7.6147092985757139e+00 3.6182893806396983e+01 3.4986504882665264e+00 0 0 0
9264 1 7.6931507157901509e+00 3.8646208372871705e+01 3.4478647869938053e+00 0 0 0
10191 1 5.4748787217597092e+00 3.7315756213972179e+01 3.6506637786253178e+00 0 0 0
9301 1 9.0275789545402620e+00 3.6254117562454887e+01 1.4463875755372788e+00 0 0 0
9299 3 1.1203699766174127e+01 3.7460170130917000e+01 1.5992500008607440e+00 0 0 0
9300 1 9.1190723201587982e+00 3.8621333409630694e+01 1.4802163630763951e+00 0 0 0
9302 1 1.1352897870151311e+01 3.9942302066607226e+01 1.4294230480275654e+00 0 0 0
7989 2 1.2097684153272917e+01 3.6177349882380156e+01 3.5537016510638644e+00 0 0 0
9298 1 9.8640124706300707e+00 3.7390601714806436e+01 3.6104628696715002e+00 0 0 0
7988 2 1.2155310342074740e+01 3.8562318901092112e+01 3.6023830517093973e+00 0 0 0
10657 3 2.6438026436495310e+00 4.2160309649253257e+01 1.4646464956566898e+00 0 0 0
10659 2 5.4258385890913774e-01 4.1002861701262368e+01 1.5209731447095940e+00 0 0 0
10658 3 5.7915733549905013e-01 4.3452051475247828e+01 1.5530930678680364e+00 0 0 0
10655 1 1.2904677805913984e+00 3.9813202241376821e+01 3.4995653401040374e+00 0 0 0
10656 2 1.2969070722608673e+00 4.2293673765101488e+01 3.5254787722593903e+00 0 0 0
10173 1 3.4112451261892209e+00 4.1015651318178456e+01 3.6285131273135827e+00 0 0 0
10172 1 3.4601738729032512e+00 4.3429222568079481e+01 3.3726511955819118e+00 0 0 0
10196 2 4.7995114580104223e+00 4.0942022781111866e+01 1.4875156930948021e+00 0 0 0
10198 3 7.0420762028806365e+00 4.2258325922082143e+01 1.6590601323885941e+00 0 0 0
10177 2 4.9008758982566150e+00 4.3362093690470012e+01 1.4545386752559881e+00 0 0 0
10194 1 5.5344682335585498e+00 3.9788551970013401e+01 3.4943480819387842e+00 0 0 0
9263 1 7.7223861574837374e+00 4.0978531390829176e+01 3.6116088785814711e+00 0 0 0
10171 3 5.5452421414835031e+00 4.2239943704027240e+01 3.5296305599251996e+00 0 0 0
9231 1 7.8297868496238721e+00 4.3418998982083323e+01 3.5910059421774365e+00 0 0 0
9266 1 1.1416273634897388e+01 4.2285437768927729e+01 1.6197353960353178e+00 0 0 0
9268 2 9.2192124514377323e+00 4.1071113229768621e+01 1.6006882342082149e+00 0 0 0
9267 3 9.2801366831508485e+00 4.3482376870867455e+01 1.6668228600134998e+00 0 0 0
9262 1 9.9081218432080256e+00 3.9764116744823511e+01 3.6269501100484041e+00 0 0 0
9265 3 1.0064166103502389e+01 4.2207289201934309e+01 3.6568837001281400e+00 0 0 0
7953 1 1.2225654691262477e+01 4.0987300685080712e+01 3.5683049851940138e+00 0 0 0
7952 3 1.2134231557164236e+01 4.3544525956496777e+01 3.5709947213833315e+00 0 0 0
10649 3 2.6708053385312049e+00 4.7218905100719113e+01 1.5262823030868393e+00 0 0 0
10651 2 5.9552589120780697e-01 4.5924101068449701e+01 1.6087710589391633e+00 0 0 0
10660 2 2.7630786961162674e+00 4.4629882327359084e+01 1.4653211957554468e+00 0 0 0
10804 3 2.0993105315845767e-01 4.7231852664497588e+01 9.6737955590819567e+01 0 0 -1
10150 3 3.3600372536571399e+00 4.5919468802103943e+01 3.5565284067743854e+00 0 0 0
10647 3 1.2604662217024669e+00 4.4757768976870103e+01 3.5557341624337497e+00 0 0 0
10648 3 1.2785983015071294e+00 4.7211023087516786e+01 3.6132994687218689e+00 0 0 0
10175 2 7.1044751623510090e+00 4.4614207345399265e+01 1.4482936665925843e+00 0 0 0
10176 1 4.9129728642094834e+00 4.5904995487382791e+01 1.4436410444780672e+00 0 0 0
10178 1 7.1049503536133916e+00 4.7125811322913123e+01 1.3713539998095776e+00 0 0 0
9230 2 7.8736630487872254e+00 4.5873630936000069e+01 3.5242545370185030e+00 0 0 0
10174 1 5.7066386487558356e+00 4.4658448886948868e+01 3.4579323612024528e+00 0 0 0
10148 3 5.7367690500601300e+00 4.7186429903288349e+01 3.5104818898284185e+00 0 0 0
9269 1 1.1465134842627796e+01 4.4740994971439342e+01 1.5736597214290726e+00 0 0 0
9235 3 9.3448923405632804e+00 4.5929032543274992e+01 1.5039854890865669e+00 0 0 0
9233 2 1.1490032977205708e+01 4.7194411559603424e+01 1.3465546123672845e+00 0 0 0
9232 2 1.0021613841277764e+01 4.7145254152884000e+01 3.5432010575431141e+00 0 0 0
9229 3 1.0054992049704442e+01 4.4737427452085797e+01 3.5912078851614710e+00 0 0 0
7917 3 1.2125740943552675e+01 4.5997661469036949e+01 3.6406709491725193e+00 0 0 0
10650 3 5.5262653908112680e-01 4.8429261356008872e+01 1.5163243125094217e+00 0 0 0
10640 2 6.3364476640626144e-01 5.0879968324847056e+01 1.4550080307777178e+00 0 0 0
10652 3 2.6787425648935965e+00 4.9593529364348079e+01 1.5510327692915833e+00 0 0 0
10149 1 3.5412241447636919e+00 4.8398050395953192e+01 3.5192766683246761e+00 0 0 0
10126 1 3.3868956719645160e+00 5.0867599507107364e+01 3.5890136406119959e+00 0 0 0
10636 3 1.3824296880813260e+00 4.9633727257396210e+01 3.6422906041798528e+00 0 0 0
10154 3 4.9244887046522292e+00 4.8392715461404322e+01 1.4867296983608216e+00 0 0 0
10152 2 7.1127542578921732e+00 4.9633872798259944e+01 1.4812439398637285e+00 0 0 0
10153 1 4.7729217599739524e+00 5.0850156568720188e+01 1.6252393002208105e+00 0 0 0
9197 3 7.8678879176103518e+00 4.8385154196252792e+01 3.3790089714811202e+00 0 0 0
10151 2 5.5910922952182753e+00 4.9643198704357530e+01 3.5004260682961106e+00 0 0 0
9196 2 7.7317399665557485e+00 5.0781813788472192e+01 3.5209286216806008e+00 0 0 0
9234 2 9.2456937704436104e+00 4.8423006671306126e+01 1.3894961903938030e+00 0 0 0
9201 3 9.2046211382553800e+00 5.0864023922359380e+01 1.5428798010941116e+00 0 0 0
9236 1 1.1422527250260027e+01 4.9616991053993019e+01 1.5246627698682569e+00 0 0 0
9237 3 1.0501422681151626e+01 5.0844338357100717e+01 9.6728783986792649e+01 0 0 -1
7916 2 1.2175277960040031e+01 4.8434900337085452e+01 3.5191342337956568e+00 0 0 0
9195 1 9.9688048254186121e+00 4.9639023267764486e+01 3.4650516624157324e+00 0 0 0
10638 1 2.6661237719813293e+00 5.2229809799644840e+01 1.4191353318865845e+00 0 0 0
10639 1 4.4942376663059247e-01 5.3379572496846009e+01 1.4744925357994156e+00 0 0 0
10641 1 2.6432559709015524e+00 5.4558788055724328e+01 1.5398326528296125e+00 0 0 0
10642 3 4.0915812185643503e+00 5.4679480061702627e+01 -4.3896008704805922e-01 0 0 0
10637 2 1.3021533471820654e+00 5.2087008802147466e+01 3.4736626643580011e+00 0 0 0
10155 1 6.9227028505479886e+00 5.2137244804806926e+01 1.5606126409832921e+00 0 0 0
10128 1 6.9539055683774835e+00 5.4584458615025959e+01 1.4630057967530594e+00 0 0 0
10130 2 4.8072305418591910e+00 5.3422918511094018e+01 1.5926880665374106e+00 0 0 0
10158 3 8.3924254254199369e+00 5.4482760353698481e+01 9.6582172953124427e+01 0 0 -1
10156 2 8.3545815726052979e+00 5.2008391164280248e+01 -4.3356661766589993e-01 0 0 0
9163 3 7.8034890648221138e+00 5.3289531863956277e+01 3.4889447654909582e+00 0 0 0
9199 1 1.1278069567374068e+01 5.2032103522457184e+01 1.3788229869610185e+00 0 0 0
9200 1 9.1197147301442012e+00 5.3325414467890532e+01 1.4745019511042736e+00 0 0 0
9202 1 1.1277075845587200e+01 5.4574117570899460e+01 1.4519163249428848e+00 0 0 0
10803 2 1.2749184185604120e+01 5.4583767064836266e+01 9.6629136175228282e+01 -1 0 -1
9204 1 1.0493936993775854e+01 5.3373730861989188e+01 9.6657367574478045e+01 0 0 -1
9198 2 9.9154864879843316e+00 5.2145950206137769e+01 3.6073079056424193e+00 0 0 0
7880 3 1.2083928365423489e+01 5.3369265399441979e+01 3.5303140458038778e+00 0 0 0
10632 2 4.9205231175850916e-01 5.5912539541726602e+01 1.6067438976082955e+00 0 0 0
10630 2 2.7062744204576021e+00 5.7131094104115270e+01 1.4565351986857147e+00 0 0 0
10631 3 5.6437229432579017e-01 5.8311466665675077e+01 1.5205597509955857e+00 0 0 0
10105 1 3.4291323244075893e+00 5.8389695051458560e+01 3.4972441138372399e+00 0 0 0
10629 1 1.3100533564827550e+00 5.7140477421850811e+01 3.5024848046062007e+00 0 0 0
10129 3 4.8894894123264141e+00 5.5901723611189851e+01 1.4829649333852983e+00 0 0 0
10110 3 4.8573417955854596e+00 5.8307386028112987e+01 1.5451617598595275e+00 0 0 0
10131 1 6.9927670184026445e+00 5.7020738419122921e+01 1.6250902840242718e+00 0 0 0
10132 1 8.3780429600400375e+00 5.7164033851963858e+01 9.6750257730910974e+01 0 0 -1
10134 2 6.3008831956328732e+00 5.5821917210207729e+01 9.6661397514511663e+01 0 0 -1
10133 3 6.2836291753275448e+00 5.8345236340658950e+01 -4.1435234851404129e-01 0 0 0
9167 3 9.1623027893079918e+00 5.5774024470133696e+01 1.4550934745593280e+00 0 0 0
9165 1 1.1384705326761484e+01 5.7137623777739904e+01 1.4844542315752658e+00 0 0 0
9166 3 9.2341520997937483e+00 5.8375530700522042e+01 1.4111547325657254e+00 0 0 0
9203 3 1.0468035483476308e+01 5.5915869342668827e+01 9.6673374780506123e+01 0 0 -1
10800 2 1.2810105770423132e+01 5.7059918344341014e+01 9.6730070333528403e+01 -1 0 -1
9164 1 9.9516748984194034e+00 5.7098337068546819e+01 3.4874450544694549e+00 0 0 0
10633 3 2.6750440061774103e+00 5.9483977309617174e+01 1.3964113388489605e+00 0 0 0
10622 1 2.6615913668797559e+00 6.2138440550567388e+01 1.2571907100342341e+00 0 0 0
10624 2 5.0200057993050706e-01 6.0779339159065664e+01 1.5036385258147207e+00 0 0 0
10086 2 3.4415541542994501e+00 6.0916168956058563e+01 3.4265770640247446e+00 0 0 0
10623 3 5.6029279806429089e-01 6.3299630884071107e+01 1.5671088083660289e+00 0 0 0
10621 1 1.3292857831866920e+00 6.2153194823469505e+01 3.5203559199674639e+00 0 0 0
10085 1 3.3902978869318630e+00 6.3308378486101631e+01 3.5232427769670362e+00 0 0 0
10620 1 1.3277345305289969e+00 5.9539066020418431e+01 3.6087752128564325e+00 0 0 0
10108 2 7.0103938395138004e+00 5.9585372726021262e+01 1.4993456788980035e+00 0 0 0
10109 2 4.7838009084114521e+00 6.0852041700482573e+01 1.4065590205623264e+00 0 0 0
10111 3 7.1274330693051251e+00 6.2046838771698482e+01 1.6761409844344288e+00 0 0 0
10135 3 8.3998277246559461e+00 5.9613998728624395e+01 9.6686183681028140e+01 0 0 -1
10090 3 4.8774768551374388e+00 6.3246842069657795e+01 1.5603997134364342e+00 0 0 0
9168 1 1.1433144013603730e+01 5.9639895961511989e+01 1.5839615562596530e+00 0 0 0
9133 3 1.1356080281075817e+01 6.2074629372947314e+01 1.6133949117738862e+00 0 0 0
9135 3 9.1890493804119799e+00 6.0818838362098063e+01 1.5261918587831040e+00 0 0 0
7809 1 1.2277432820788372e+01 6.0817699905974301e+01 3.6203207162177096e+00 0 0 0
9134 2 9.2784013668919147e+00 6.3381374360397800e+01 1.5074523384127709e+00 0 0 0
9132 3 1.0000551836480328e+01 6.2050493238086041e+01 3.6128676246089544e+00 0 0 0
9129 1 1.0054260797216076e+01 5.9574209701232768e+01 3.5216738931357461e+00 0 0 0
10625 3 2.6314080625043079e+00 6.4617348270887760e+01 1.6255257513221406e+00 0 0 0
10616 1 4.9248252108251633e-01 6.5775564440153744e+01 1.7918669953697988e+00 0 0 0
10065 2 3.2747061194425537e+00 6.5881397907617739e+01 3.5970327261964137e+00 0 0 0
10614 3 2.6327444675711846e+00 6.7244283397028639e+01 1.6644238013604875e+00 0 0 0
10612 2 1.3177181596545045e+00 6.4528185214112781e+01 3.6648068573216914e+00 0 0 0
10613 1 1.1454708780189848e+00 6.7119087969947316e+01 3.6857758496514386e+00 0 0 0
10088 3 7.0875200356113384e+00 6.4498382359824234e+01 1.5114584622317295e+00 0 0 0
10087 2 5.5858878916468697e+00 6.4481840938782696e+01 3.5093801319111542e+00 0 0 0
10089 2 4.6903813335073794e+00 6.5735828635356668e+01 1.6152142314016742e+00 0 0 0
9098 2 7.7594000024107297e+00 6.5808485377813753e+01 3.5999110611912206e+00 0 0 0
10091 1 7.0767832609733281e+00 6.6934798347494933e+01 1.4933620654268649e+00 0 0 0
10063 1 5.5939454696765525e+00 6.6988346380789835e+01 3.4910662930300740e+00 0 0 0
9136 3 1.1473719061966820e+01 6.4595061838884320e+01 1.4746017832305709e+00 0 0 0
9103 3 9.3621501683075099e+00 6.5840181396947173e+01 1.5609558349697852e+00 0 0 0
9101 3 1.1497348743409390e+01 6.7046546205001079e+01 1.8287664636260961e+00 0 0 0
9100 3 9.9160287827274107e+00 6.6989140024949862e+01 3.7225312927846392e+00 0 0 0
7808 2 1.2158819005752068e+01 6.3372920754682575e+01 3.7047180145663994e+00 0 0 0
9097 2 9.9391149210610159e+00 6.4603722970111221e+01 3.6791176967895938e+00 0 0 0
7773 3 1.2130641986902560e+01 6.5810406564960388e+01 3.7409340132431517e+00 0 0 0
10615 3 5.5149373537096114e-01 6.8388842681682931e+01 1.8227559013858441e+00 0 0 0
10064 3 3.3538263514533715e+00 6.8332973626702625e+01 3.6980937184797060e+00 0 0 0
10617 3 2.6573093720706202e+00 6.9646333928112028e+01 1.7578490310112764e+00 0 0 0
10043 2 3.4230673006599281e+00 7.0819858822581494e+01 3.7417927857418887e+00 0 0 0
10607 1 5.4647217860982378e-01 7.0855474163264759e+01 1.8193371440810555e+00 0 0 0
10603 3 1.2181558605519922e+00 6.9561312271839896e+01 3.8288731790848534e+00 0 0 0
9066 1 7.6578887548804104e+00 6.8263296062796258e+01 3.5657035684277671e+00 0 0 0
10069 2 4.8964974423891965e+00 6.8374437845994805e+01 1.7189121173220716e+00 0 0 0
10067 1 7.1248111383685506e+00 6.9516678464602322e+01 1.5411745890369997e+00 0 0 0
10066 3 5.5745182696715938e+00 6.9625123267170238e+01 3.6204571727410517e+00 0 0 0
10068 2 4.8711502109341920e+00 7.0710571436183386e+01 1.7051430455069436e+00 0 0 0
9065 3 7.7063110127618204e+00 7.0814444739120006e+01 3.6856520558641925e+00 0 0 0
9102 2 9.4302003487254709e+00 6.8274550692306406e+01 1.7491740409855971e+00 0 0 0
7772 3 1.2096316476865947e+01 6.8296749222856874e+01 3.8538260840168945e+00 0 0 0
9104 2 1.1574438082177627e+01 6.9645482647143353e+01 1.7012242228827503e+00 0 0 0
9064 2 9.9446598096073089e+00 6.9599847965984537e+01 3.7157094939766564e+00 0 0 0
9070 1 9.3244519282094895e+00 7.0858026872648736e+01 1.6543652491946563e+00 0 0 0
7737 2 1.2113397129145293e+01 7.0798138510643483e+01 3.7835658295098566e+00 0 0 0
10605 3 2.6814965118183651e+00 7.2004941550172319e+01 1.6897243086344687e+00 0 0 0
10604 1 1.2564353607298464e+00 7.2019414006788310e+01 3.7263500499747897e+00 0 0 0
10606 1 4.2236646652510879e-01 7.3338070477285143e+01 1.7854409571290168e+00 0 0 0
10042 2 3.3266723092246231e+00 7.3327323083097227e+01 3.6905192797781625e+00 0 0 0
10608 2 2.5303428129370844e+00 7.4607787467921014e+01 1.6851766116930205e+00 0 0 0
10594 1 1.0388044090947599e+00 7.4605988043565233e+01 3.7612033368966333e+00 0 0 0
10041 3 5.4546901630275428e+00 7.2022055178878915e+01 3.6933296873620831e+00 0 0 0
10070 3 6.9877897332631758e+00 7.2000120810402805e+01 1.6501278341565055e+00 0 0 0
10045 3 6.8519602270659821e+00 7.4513184660132566e+01 1.7967328531120867e+00 0 0 0
10047 3 4.7624220024378392e+00 7.3261711040459716e+01 1.7228910347415156e+00 0 0 0
9033 2 7.5975364723744940e+00 7.3292893912513961e+01 3.8405246505200026e+00 0 0 0
10044 3 5.4003493215659937e+00 7.4473054700376636e+01 3.8736251207870485e+00 0 0 0
9068 3 1.1306812344679896e+01 7.2193032424118528e+01 1.8348402671562933e+00 0 0 0
9067 3 9.9389149641789878e+00 7.2025672320874435e+01 3.7825058027417082e+00 0 0 0
9069 2 9.0684381722547069e+00 7.3205765891912151e+01 1.8290195734347816e+00 0 0 0
9071 3 1.1264267085094128e+01 7.4597085267043497e+01 1.6648151037089591e+00 0 0 0
9031 3 9.8857244879723929e+00 7.4480098442001250e+01 3.7689626114949686e+00 0 0 0
7736 3 1.2041915410420735e+01 7.3361402347047090e+01 3.8083463956481296e+00 0 0 0
10598 3 2.8886762785183928e-01 7.5796047356857756e+01 1.7201689691302668e+00 0 0 0
10022 2 3.2613859500675129e+00 7.5927586299498529e+01 3.7511360701651526e+00 0 0 0
10596 2 2.4780243171957097e+00 7.7112385502319015e+01 1.7992126913775746e+00 0 0 0
10597 2 3.0431098363253117e-01 7.8346360251591449e+01 1.7353182182269564e+00 0 0 0
10021 2 3.2645274253845789e+00 7.8310831183725156e+01 3.7836881973542162e+00 0 0 0
10595 3 8.8933800722426504e-01 7.7132763721433079e+01 3.7768422029147590e+00 0 0 0
10046 2 4.6824064221560056e+00 7.5779455293016468e+01 1.9187390495201346e+00 0 0 0
9032 3 7.6344461807733115e+00 7.5710729602853718e+01 3.8628368637119923e+00 0 0 0
10026 3 4.6822650360680758e+00 7.8217894248485862e+01 1.8396357205142038e+00 0 0 0
10048 1 6.8900245936985849e+00 7.6914452439435109e+01 1.8285239611355690e+00 0 0 0
9000 2 7.5775575233646757e+00 7.8377326818284175e+01 3.8011993488230003e+00 0 0 0
10020 3 5.5121297312818918e+00 7.7008471639935181e+01 3.7871922224719174e+00 0 0 0
9037 2 9.0969530580410556e+00 7.5758227422277358e+01 1.8222237684281533e+00 0 0 0
7701 2 1.1917696573102640e+01 7.5824996621959372e+01 3.7473805253490484e+00 0 0 0
9036 3 8.9742602498460275e+00 7.8263534748719323e+01 1.6637578814406053e+00 0 0 0
9035 1 1.1177775326382427e+01 7.7104440485218305e+01 1.7412706838768166e+00 0 0 0
7700 1 1.1895149344378073e+01 7.8314140089610362e+01 3.6850331871776820e+00 0 0 0